
Linearized model: Predictions were generated on 08-Jun-2023 at 14:24:27 using OpenFAST, compiled as a DLL S-Function for Simulink as a 64-bit application using single precision at commit v3.4.0
 linked with  NWTC Subroutine Library; ElastoDyn; InflowWind; AeroDyn; ServoDyn; HydroDyn; MAP++ (<1.20.10>, <Jan-13-2023>)

Description from the FAST input file: FAST Certification Test #24: NREL 5.0 MW Baseline Wind Turbine with OC3 Hywind Configuration, for use in offshore analysis

Simulation information:
   Simulation time:                  1281.6500 s
   Rotor Speed:                         1.2678 rad/s
   Azimuth:                             2.8212 rad
   Wind Speed:                         16.0000 m/s
   Number of continuous states:        38
   Number of discrete states:           0
   Number of constraint states:         0
   Number of inputs:                   67
   Number of outputs:                 140
   Jacobians included in this file?    No

Order of continuous states:
   Row/Column Operating Point                                    Rotating Frame? Derivative Order Description
   ---------- ---------------                                    --------------- ---------------- -----------
          1     1.4831942E+01                                           F               2         ED Platform horizontal surge translation DOF (internal DOF index = DOF_Sg), m
          2     5.2967340E-02                                           F               2         ED Platform pitch tilt rotation DOF (internal DOF index = DOF_P), rad
          3     2.8021371E-01                                           F               2         ED 1st tower fore-aft bending mode DOF (internal DOF index = DOF_TFA1), m
          4     1.2504053E+00                                           F               2         ED Variable speed generator DOF (internal DOF index = DOF_GeAz), rad
          5     2.7346781E-03                                           F               2         ED First time derivative of Platform horizontal surge translation DOF (internal DOF index = DOF_Sg), m/s
          6     3.1780168E-05                                           F               2         ED First time derivative of Platform pitch tilt rotation DOF (internal DOF index = DOF_P), rad/s
          7    -8.0068382E-03                                           F               2         ED First time derivative of 1st tower fore-aft bending mode DOF (internal DOF index = DOF_TFA1), m/s
          8     1.2678019E+00                                           F               2         ED First time derivative of Variable speed generator DOF (internal DOF index = DOF_GeAz), rad/s
          9     0.0000000E+00                                           F               1         HD ExctnPtfmSg1
         10     0.0000000E+00                                           F               1         HD ExctnPtfmSg2
         11     0.0000000E+00                                           F               1         HD ExctnPtfmSg3
         12     0.0000000E+00                                           F               1         HD ExctnPtfmSg4
         13     0.0000000E+00                                           F               1         HD ExctnPtfmSg5
         14     0.0000000E+00                                           F               1         HD ExctnPtfmSg6
         15     0.0000000E+00                                           F               1         HD ExctnPtfmSg7
         16     0.0000000E+00                                           F               1         HD ExctnPtfmSg8
         17     0.0000000E+00                                           F               1         HD ExctnPtfmSg9
         18     0.0000000E+00                                           F               1         HD ExctnPtfmSg10
         19     0.0000000E+00                                           F               1         HD ExctnPtfmSg11
         20     0.0000000E+00                                           F               1         HD ExctnPtfmSg12
         21     0.0000000E+00                                           F               1         HD ExctnPtfmSg13
         22     0.0000000E+00                                           F               1         HD ExctnPtfmSg14
         23     0.0000000E+00                                           F               1         HD ExctnPtfmP1
         24     0.0000000E+00                                           F               1         HD ExctnPtfmP2
         25     0.0000000E+00                                           F               1         HD ExctnPtfmP3
         26     0.0000000E+00                                           F               1         HD ExctnPtfmP4
         27     0.0000000E+00                                           F               1         HD ExctnPtfmP5
         28     0.0000000E+00                                           F               1         HD ExctnPtfmP6
         29     0.0000000E+00                                           F               1         HD ExctnPtfmP7
         30     0.0000000E+00                                           F               1         HD ExctnPtfmP8
         31     9.4509864E-04                                           F               1         HD RdtnPtfmSg1
         32    -4.2955791E-05                                           F               1         HD RdtnPtfmSg2
         33     2.0156143E+26                                           F               1         HD RdtnPtfmSg3
         34     8.8367731E+27                                           F               1         HD RdtnPtfmSg4
         35     0.0000000E+00                                           F               1         HD RdtnPtfmSw1
         36     0.0000000E+00                                           F               1         HD RdtnPtfmSw2
         37     0.0000000E+00                                           F               1         HD RdtnPtfmSw3
         38     0.0000000E+00                                           F               1         HD RdtnPtfmSw4

Order of continuous state derivatives:
   Row/Column Operating Point                                    Rotating Frame? Derivative Order Description
   ---------- ---------------                                    --------------- ---------------- -----------
          1     2.7346781E-03                                           F               2         First time derivative of ED Platform horizontal surge translation DOF (internal DOF index = DOF_Sg), m/s
          2     3.1780168E-05                                           F               2         First time derivative of ED Platform pitch tilt rotation DOF (internal DOF index = DOF_P), rad/s
          3    -8.0068382E-03                                           F               2         First time derivative of ED 1st tower fore-aft bending mode DOF (internal DOF index = DOF_TFA1), m/s
          4     1.2678019E+00                                           F               2         First time derivative of ED Variable speed generator DOF (internal DOF index = DOF_GeAz), rad/s
          5    -7.1548028E-03                                           F               2         First time derivative of ED First time derivative of Platform horizontal surge translation DOF (internal DOF index = DOF_Sg), m/s/s
          6    -8.7932734E-05                                           F               2         First time derivative of ED First time derivative of Platform pitch tilt rotation DOF (internal DOF index = DOF_P), rad/s/s
          7     3.3074878E-02                                           F               2         First time derivative of ED First time derivative of 1st tower fore-aft bending mode DOF (internal DOF index = DOF_TFA1), m/s/s
          8    -8.7279233E-04                                           F               2         First time derivative of ED First time derivative of Variable speed generator DOF (internal DOF index = DOF_GeAz), rad/s/s
          9     0.0000000E+00                                           F               1         First time derivative of HD ExctnPtfmSg1/s
         10     0.0000000E+00                                           F               1         First time derivative of HD ExctnPtfmSg2/s
         11     0.0000000E+00                                           F               1         First time derivative of HD ExctnPtfmSg3/s
         12     0.0000000E+00                                           F               1         First time derivative of HD ExctnPtfmSg4/s
         13     0.0000000E+00                                           F               1         First time derivative of HD ExctnPtfmSg5/s
         14     0.0000000E+00                                           F               1         First time derivative of HD ExctnPtfmSg6/s
         15     0.0000000E+00                                           F               1         First time derivative of HD ExctnPtfmSg7/s
         16     0.0000000E+00                                           F               1         First time derivative of HD ExctnPtfmSg8/s
         17     0.0000000E+00                                           F               1         First time derivative of HD ExctnPtfmSg9/s
         18     0.0000000E+00                                           F               1         First time derivative of HD ExctnPtfmSg10/s
         19     0.0000000E+00                                           F               1         First time derivative of HD ExctnPtfmSg11/s
         20     0.0000000E+00                                           F               1         First time derivative of HD ExctnPtfmSg12/s
         21     0.0000000E+00                                           F               1         First time derivative of HD ExctnPtfmSg13/s
         22     0.0000000E+00                                           F               1         First time derivative of HD ExctnPtfmSg14/s
         23     0.0000000E+00                                           F               1         First time derivative of HD ExctnPtfmP1/s
         24     0.0000000E+00                                           F               1         First time derivative of HD ExctnPtfmP2/s
         25     0.0000000E+00                                           F               1         First time derivative of HD ExctnPtfmP3/s
         26     0.0000000E+00                                           F               1         First time derivative of HD ExctnPtfmP4/s
         27     0.0000000E+00                                           F               1         First time derivative of HD ExctnPtfmP5/s
         28     0.0000000E+00                                           F               1         First time derivative of HD ExctnPtfmP6/s
         29     0.0000000E+00                                           F               1         First time derivative of HD ExctnPtfmP7/s
         30     0.0000000E+00                                           F               1         First time derivative of HD ExctnPtfmP8/s
         31     1.6392708E-03                                           F               1         First time derivative of HD RdtnPtfmSg1/s
         32     9.4509864E-04                                           F               1         First time derivative of HD RdtnPtfmSg2/s
         33    -7.3291022E+27                                           F               1         First time derivative of HD RdtnPtfmSg3/s
         34     2.8022513E+28                                           F               1         First time derivative of HD RdtnPtfmSg4/s
         35     0.0000000E+00                                           F               1         First time derivative of HD RdtnPtfmSw1/s
         36     0.0000000E+00                                           F               1         First time derivative of HD RdtnPtfmSw2/s
         37     0.0000000E+00                                           F               1         First time derivative of HD RdtnPtfmSw3/s
         38     0.0000000E+00                                           F               1         First time derivative of HD RdtnPtfmSw4/s

Order of inputs:
     Column   Operating Point                                    Rotating Frame? Derivative Order Description
   ---------- ---------------                                    --------------- ---------------- -----------
          1     1.6000000E+01                                           F               0         IfW Extended input: horizontal wind speed (steady/uniform wind), m/s
          2     2.0000000E-01                                           F               0         IfW Extended input: vertical power-law shear exponent, -
          3     0.0000000E+00                                           F               0         IfW Extended input: propagation direction, rad
          4     2.0369333E-01                                           T               0         ED Blade 1 pitch command, rad
          5     2.0369333E-01                                           T               0         ED Blade 2 pitch command, rad
          6     2.0369333E-01                                           T               0         ED Blade 3 pitch command, rad
          7     0.0000000E+00                                           F               0         ED Yaw moment, Nm
          8     4.3093602E+04                                           F               0         ED Generator torque, Nm
          9     2.0369333E-01                                           F               0         ED Extended input: collective blade-pitch command, rad
         10     0.0000000E+00                                           T               0         AD User property on blade 1, node 1, -
         11     0.0000000E+00                                           T               0         AD User property on blade 1, node 2, -
         12     0.0000000E+00                                           T               0         AD User property on blade 1, node 3, -
         13     0.0000000E+00                                           T               0         AD User property on blade 1, node 4, -
         14     0.0000000E+00                                           T               0         AD User property on blade 1, node 5, -
         15     0.0000000E+00                                           T               0         AD User property on blade 1, node 6, -
         16     0.0000000E+00                                           T               0         AD User property on blade 1, node 7, -
         17     0.0000000E+00                                           T               0         AD User property on blade 1, node 8, -
         18     0.0000000E+00                                           T               0         AD User property on blade 1, node 9, -
         19     0.0000000E+00                                           T               0         AD User property on blade 1, node 10, -
         20     0.0000000E+00                                           T               0         AD User property on blade 1, node 11, -
         21     0.0000000E+00                                           T               0         AD User property on blade 1, node 12, -
         22     0.0000000E+00                                           T               0         AD User property on blade 1, node 13, -
         23     0.0000000E+00                                           T               0         AD User property on blade 1, node 14, -
         24     0.0000000E+00                                           T               0         AD User property on blade 1, node 15, -
         25     0.0000000E+00                                           T               0         AD User property on blade 1, node 16, -
         26     0.0000000E+00                                           T               0         AD User property on blade 1, node 17, -
         27     0.0000000E+00                                           T               0         AD User property on blade 1, node 18, -
         28     0.0000000E+00                                           T               0         AD User property on blade 1, node 19, -
         29     0.0000000E+00                                           T               0         AD User property on blade 2, node 1, -
         30     0.0000000E+00                                           T               0         AD User property on blade 2, node 2, -
         31     0.0000000E+00                                           T               0         AD User property on blade 2, node 3, -
         32     0.0000000E+00                                           T               0         AD User property on blade 2, node 4, -
         33     0.0000000E+00                                           T               0         AD User property on blade 2, node 5, -
         34     0.0000000E+00                                           T               0         AD User property on blade 2, node 6, -
         35     0.0000000E+00                                           T               0         AD User property on blade 2, node 7, -
         36     0.0000000E+00                                           T               0         AD User property on blade 2, node 8, -
         37     0.0000000E+00                                           T               0         AD User property on blade 2, node 9, -
         38     0.0000000E+00                                           T               0         AD User property on blade 2, node 10, -
         39     0.0000000E+00                                           T               0         AD User property on blade 2, node 11, -
         40     0.0000000E+00                                           T               0         AD User property on blade 2, node 12, -
         41     0.0000000E+00                                           T               0         AD User property on blade 2, node 13, -
         42     0.0000000E+00                                           T               0         AD User property on blade 2, node 14, -
         43     0.0000000E+00                                           T               0         AD User property on blade 2, node 15, -
         44     0.0000000E+00                                           T               0         AD User property on blade 2, node 16, -
         45     0.0000000E+00                                           T               0         AD User property on blade 2, node 17, -
         46     0.0000000E+00                                           T               0         AD User property on blade 2, node 18, -
         47     0.0000000E+00                                           T               0         AD User property on blade 2, node 19, -
         48     0.0000000E+00                                           T               0         AD User property on blade 3, node 1, -
         49     0.0000000E+00                                           T               0         AD User property on blade 3, node 2, -
         50     0.0000000E+00                                           T               0         AD User property on blade 3, node 3, -
         51     0.0000000E+00                                           T               0         AD User property on blade 3, node 4, -
         52     0.0000000E+00                                           T               0         AD User property on blade 3, node 5, -
         53     0.0000000E+00                                           T               0         AD User property on blade 3, node 6, -
         54     0.0000000E+00                                           T               0         AD User property on blade 3, node 7, -
         55     0.0000000E+00                                           T               0         AD User property on blade 3, node 8, -
         56     0.0000000E+00                                           T               0         AD User property on blade 3, node 9, -
         57     0.0000000E+00                                           T               0         AD User property on blade 3, node 10, -
         58     0.0000000E+00                                           T               0         AD User property on blade 3, node 11, -
         59     0.0000000E+00                                           T               0         AD User property on blade 3, node 12, -
         60     0.0000000E+00                                           T               0         AD User property on blade 3, node 13, -
         61     0.0000000E+00                                           T               0         AD User property on blade 3, node 14, -
         62     0.0000000E+00                                           T               0         AD User property on blade 3, node 15, -
         63     0.0000000E+00                                           T               0         AD User property on blade 3, node 16, -
         64     0.0000000E+00                                           T               0         AD User property on blade 3, node 17, -
         65     0.0000000E+00                                           T               0         AD User property on blade 3, node 18, -
         66     0.0000000E+00                                           T               0         AD User property on blade 3, node 19, -
         67     0.0000000E+00                                           F               0         HD Extended input: wave elevation at platform ref point, m

Order of outputs:
        Row   Operating Point                                    Rotating Frame? Derivative Order Description
   ---------- ---------------                                    --------------- ---------------- -----------
          1     1.6000000E+01                                           F               0         IfW Wind1VelX, (m/s)
          2     0.0000000E+00                                           F               0         IfW Wind1VelY, (m/s)
          3     0.0000000E+00                                           F               0         IfW Wind1VelZ, (m/s)
          4     5.0027402E+03                                           F               0         SrvD GenPwr, (kW)
          5     4.3093605E+01                                           F               0         SrvD GenTq, (kN-m)
          6     1.1670768E+01                                           T               0         ED BldPitch1, (deg)
          7     1.1670768E+01                                           T               0         ED BldPitch2, (deg)
          8     1.1670768E+01                                           T               0         ED BldPitch3, (deg)
          9     1.6164293E+02                                           F               0         ED Azimuth, (deg)
         10     1.2106616E+01                                           F               0         ED RotSpeed, (rpm)
         11     1.1743418E+03                                           F               0         ED GenSpeed, (rpm)
         12     0.0000000E+00                                           F               0         ED NacYaw, (deg)
         13     0.0000000E+00                                           T               0         ED OoPDefl1, (m)
         14     0.0000000E+00                                           T               0         ED IPDefl1, (m)
         15     0.0000000E+00                                           T               0         ED TwstDefl1, (deg)
         16     0.0000000E+00                                           T               0         ED OoPDefl2, (m)
         17     0.0000000E+00                                           T               0         ED IPDefl2, (m)
         18     0.0000000E+00                                           T               0         ED TwstDefl2, (deg)
         19     0.0000000E+00                                           T               0         ED OoPDefl3, (m)
         20     0.0000000E+00                                           T               0         ED IPDefl3, (m)
         21     0.0000000E+00                                           T               0         ED TwstDefl3, (deg)
         22     2.3674175E+01                                           T               0         ED TwrClrnc1, (m)
         23     6.3858849E+01                                           T               0         ED TwrClrnc2, (m)
         24     6.4901474E+01                                           T               0         ED TwrClrnc3, (m)
         25     1.9629015E-02                                           F               0         ED NcIMUTAxs, (m/s^2)
         26     0.0000000E+00                                           F               0         ED NcIMUTAys, (m/s^2)
         27     3.6060957E-03                                           F               0         ED NcIMUTAzs, (m/s^2)
         28     2.8021371E-01                                           F               0         ED TTDspFA, (m)
         29     0.0000000E+00                                           F               0         ED TTDspSS, (m)
         30     0.0000000E+00                                           F               0         ED TTDspTwst, (deg)
         31     1.4831942E+01                                           F               0         ED PtfmSurge, (m)
         32     0.0000000E+00                                           F               0         ED PtfmSway, (m)
         33     0.0000000E+00                                           F               0         ED PtfmHeave, (m)
         34     0.0000000E+00                                           F               0         ED PtfmRoll, (deg)
         35     3.0348048E+00                                           F               0         ED PtfmPitch, (deg)
         36     0.0000000E+00                                           F               0         ED PtfmYaw, (deg)
         37    -7.1447873E-03                                           F               0         ED PtfmTAxt, (m/s^2)
         38     0.0000000E+00                                           F               0         ED PtfmTAyt, (m/s^2)
         39    -3.7844037E-04                                           F               0         ED PtfmTAzt, (m/s^2)
         40     1.4464351E+02                                           T               0         ED RootFxc1, (kN)
         41    -8.1479202E+01                                           T               0         ED RootFyc1, (kN)
         42     7.8346368E+02                                           T               0         ED RootFzc1, (kN)
         43     1.8687837E+03                                           T               0         ED RootMxc1, (kN-m)
         44     4.1591890E+03                                           T               0         ED RootMyc1, (kN-m)
         45    -4.7556080E+01                                           T               0         ED RootMzc1, (kN-m)
         46     1.9547018E+02                                           T               0         ED RootFxc2, (kN)
         47     1.1385004E+02                                           T               0         ED RootFyc2, (kN)
         48     5.8774799E+02                                           T               0         ED RootFzc2, (kN)
         49    -1.8252687E+03                                           T               0         ED RootMxc2, (kN-m)
         50     6.4011611E+03                                           T               0         ED RootMyc2, (kN-m)
         51    -1.8645803E+01                                           T               0         ED RootMzc2, (kN-m)
         52     1.9651245E+02                                           T               0         ED RootFxc3, (kN)
         53    -1.6367155E+02                                           T               0         ED RootFyc3, (kN)
         54     4.9500327E+02                                           T               0         ED RootFzc3, (kN)
         55     3.9348748E+03                                           T               0         ED RootMxc3, (kN-m)
         56     6.5572417E+03                                           T               0         ED RootMyc3, (kN-m)
         57    -3.0664438E+01                                           T               0         ED RootMzc3, (kN-m)
         58     1.3039855E+01                                           T               0         ED Spn1MLxb1, (kN-m)
         59     8.2424451E+02                                           T               0         ED Spn1MLyb1, (kN-m)
         60    -4.0044212E+01                                           T               0         ED Spn1MLzb1, (kN-m)
         61    -6.4734082E+02                                           T               0         ED Spn1MLxb2, (kN-m)
         62     1.3356786E+03                                           T               0         ED Spn1MLyb2, (kN-m)
         63    -2.2961237E+01                                           T               0         ED Spn1MLzb2, (kN-m)
         64     1.4876190E+02                                           T               0         ED Spn1MLxb3, (kN-m)
         65     1.6839236E+03                                           T               0         ED Spn1MLyb3, (kN-m)
         66    -2.8791132E+01                                           T               0         ED Spn1MLzb3, (kN-m)
         67     5.3523499E+02                                           F               0         ED RotThrust, (kN)
         68    -3.1033069E+02                                           F               0         ED LSSGagFya, (kN)