
Linearized model: Predictions were generated on 08-Jun-2023 at 14:24:27 using OpenFAST, compiled as a DLL S-Function for Simulink as a 64-bit application using single precision at commit v3.4.0
 linked with  NWTC Subroutine Library; ElastoDyn; InflowWind; AeroDyn; ServoDyn; HydroDyn; MAP++ (<1.20.10>, <Jan-13-2023>)

Description from the FAST input file: FAST Certification Test #24: NREL 5.0 MW Baseline Wind Turbine with OC3 Hywind Configuration, for use in offshore analysis

Simulation information:
   Simulation time:                  1283.8500 s
   Rotor Speed:                         1.2663 rad/s
   Azimuth:                             5.6086 rad
   Wind Speed:                         16.0000 m/s
   Number of continuous states:        38
   Number of discrete states:           0
   Number of constraint states:         0
   Number of inputs:                   67
   Number of outputs:                 140
   Jacobians included in this file?    No

Order of continuous states:
   Row/Column Operating Point                                    Rotating Frame? Derivative Order Description
   ---------- ---------------                                    --------------- ---------------- -----------
          1     1.4831734E+01                                           F               2         ED Platform horizontal surge translation DOF (internal DOF index = DOF_Sg), m
          2     5.2960567E-02                                           F               2         ED Platform pitch tilt rotation DOF (internal DOF index = DOF_P), rad
          3     2.8260407E-01                                           F               2         ED 1st tower fore-aft bending mode DOF (internal DOF index = DOF_TFA1), m
          4     4.0378075E+00                                           F               2         ED Variable speed generator DOF (internal DOF index = DOF_GeAz), rad
          5    -3.2791949E-03                                           F               2         ED First time derivative of Platform horizontal surge translation DOF (internal DOF index = DOF_Sg), m/s
          6    -4.2313721E-05                                           F               2         ED First time derivative of Platform pitch tilt rotation DOF (internal DOF index = DOF_P), rad/s
          7     1.2693593E-02                                           F               2         ED First time derivative of 1st tower fore-aft bending mode DOF (internal DOF index = DOF_TFA1), m/s
          8     1.2662996E+00                                           F               2         ED First time derivative of Variable speed generator DOF (internal DOF index = DOF_GeAz), rad/s
          9     0.0000000E+00                                           F               1         HD ExctnPtfmSg1
         10     0.0000000E+00                                           F               1         HD ExctnPtfmSg2
         11     0.0000000E+00                                           F               1         HD ExctnPtfmSg3
         12     0.0000000E+00                                           F               1         HD ExctnPtfmSg4
         13     0.0000000E+00                                           F               1         HD ExctnPtfmSg5
         14     0.0000000E+00                                           F               1         HD ExctnPtfmSg6
         15     0.0000000E+00                                           F               1         HD ExctnPtfmSg7
         16     0.0000000E+00                                           F               1         HD ExctnPtfmSg8
         17     0.0000000E+00                                           F               1         HD ExctnPtfmSg9
         18     0.0000000E+00                                           F               1         HD ExctnPtfmSg10
         19     0.0000000E+00                                           F               1         HD ExctnPtfmSg11
         20     0.0000000E+00                                           F               1         HD ExctnPtfmSg12
         21     0.0000000E+00                                           F               1         HD ExctnPtfmSg13
         22     0.0000000E+00                                           F               1         HD ExctnPtfmSg14
         23     0.0000000E+00                                           F               1         HD ExctnPtfmP1
         24     0.0000000E+00                                           F               1         HD ExctnPtfmP2
         25     0.0000000E+00                                           F               1         HD ExctnPtfmP3
         26     0.0000000E+00                                           F               1         HD ExctnPtfmP4
         27     0.0000000E+00                                           F               1         HD ExctnPtfmP5
         28     0.0000000E+00                                           F               1         HD ExctnPtfmP6
         29     0.0000000E+00                                           F               1         HD ExctnPtfmP7
         30     0.0000000E+00                                           F               1         HD ExctnPtfmP8
         31    -2.2838826E-04                                           F               1         HD RdtnPtfmSg1
         32     3.5674771E-04                                           F               1         HD RdtnPtfmSg2
         33    -3.7461052E+27                                           F               1         HD RdtnPtfmSg3
         34     3.4081747E+27                                           F               1         HD RdtnPtfmSg4
         35     0.0000000E+00                                           F               1         HD RdtnPtfmSw1
         36     0.0000000E+00                                           F               1         HD RdtnPtfmSw2
         37     0.0000000E+00                                           F               1         HD RdtnPtfmSw3
         38     0.0000000E+00                                           F               1         HD RdtnPtfmSw4

Order of continuous state derivatives:
   Row/Column Operating Point                                    Rotating Frame? Derivative Order Description
   ---------- ---------------                                    --------------- ---------------- -----------
          1    -3.2791949E-03                                           F               2         First time derivative of ED Platform horizontal surge translation DOF (internal DOF index = DOF_Sg), m/s
          2    -4.2313721E-05                                           F               2         First time derivative of ED Platform pitch tilt rotation DOF (internal DOF index = DOF_P), rad/s
          3     1.2693593E-02                                           F               2         First time derivative of ED 1st tower fore-aft bending mode DOF (internal DOF index = DOF_TFA1), m/s
          4     1.2662996E+00                                           F               2         First time derivative of ED Variable speed generator DOF (internal DOF index = DOF_GeAz), rad/s
          5     1.4068889E-03                                           F               2         First time derivative of ED First time derivative of Platform horizontal surge translation DOF (internal DOF index = DOF_Sg), m/s/s
          6     1.5873502E-05                                           F               2         First time derivative of ED First time derivative of Platform pitch tilt rotation DOF (internal DOF index = DOF_P), rad/s/s
          7    -1.2837714E-03                                           F               2         First time derivative of ED First time derivative of 1st tower fore-aft bending mode DOF (internal DOF index = DOF_TFA1), m/s/s
          8     9.1806427E-04                                           F               2         First time derivative of ED First time derivative of Variable speed generator DOF (internal DOF index = DOF_GeAz), rad/s/s
          9     0.0000000E+00                                           F               1         First time derivative of HD ExctnPtfmSg1/s
         10     0.0000000E+00                                           F               1         First time derivative of HD ExctnPtfmSg2/s
         11     0.0000000E+00                                           F               1         First time derivative of HD ExctnPtfmSg3/s
         12     0.0000000E+00                                           F               1         First time derivative of HD ExctnPtfmSg4/s
         13     0.0000000E+00                                           F               1         First time derivative of HD ExctnPtfmSg5/s
         14     0.0000000E+00                                           F               1         First time derivative of HD ExctnPtfmSg6/s
         15     0.0000000E+00                                           F               1         First time derivative of HD ExctnPtfmSg7/s
         16     0.0000000E+00                                           F               1         First time derivative of HD ExctnPtfmSg8/s
         17     0.0000000E+00                                           F               1         First time derivative of HD ExctnPtfmSg9/s
         18     0.0000000E+00                                           F               1         First time derivative of HD ExctnPtfmSg10/s
         19     0.0000000E+00                                           F               1         First time derivative of HD ExctnPtfmSg11/s
         20     0.0000000E+00                                           F               1         First time derivative of HD ExctnPtfmSg12/s
         21     0.0000000E+00                                           F               1         First time derivative of HD ExctnPtfmSg13/s
         22     0.0000000E+00                                           F               1         First time derivative of HD ExctnPtfmSg14/s
         23     0.0000000E+00                                           F               1         First time derivative of HD ExctnPtfmP1/s
         24     0.0000000E+00                                           F               1         First time derivative of HD ExctnPtfmP2/s
         25     0.0000000E+00                                           F               1         First time derivative of HD ExctnPtfmP3/s
         26     0.0000000E+00                                           F               1         First time derivative of HD ExctnPtfmP4/s
         27     0.0000000E+00                                           F               1         First time derivative of HD ExctnPtfmP5/s
         28     0.0000000E+00                                           F               1         First time derivative of HD ExctnPtfmP6/s
         29     0.0000000E+00                                           F               1         First time derivative of HD ExctnPtfmP7/s
         30     0.0000000E+00                                           F               1         First time derivative of HD ExctnPtfmP8/s
         31    -3.6725870E-03                                           F               1         First time derivative of HD RdtnPtfmSg1/s
         32    -2.2838826E-04                                           F               1         First time derivative of HD RdtnPtfmSg2/s
         33     7.1245148E+26                                           F               1         First time derivative of HD RdtnPtfmSg3/s
         34    -3.7106637E+28                                           F               1         First time derivative of HD RdtnPtfmSg4/s
         35     0.0000000E+00                                           F               1         First time derivative of HD RdtnPtfmSw1/s
         36     0.0000000E+00                                           F               1         First time derivative of HD RdtnPtfmSw2/s
         37     0.0000000E+00                                           F               1         First time derivative of HD RdtnPtfmSw3/s
         38     0.0000000E+00                                           F               1         First time derivative of HD RdtnPtfmSw4/s

Order of inputs:
     Column   Operating Point                                    Rotating Frame? Derivative Order Description
   ---------- ---------------                                    --------------- ---------------- -----------
          1     1.6000000E+01                                           F               0         IfW Extended input: horizontal wind speed (steady/uniform wind), m/s
          2     2.0000000E-01                                           F               0         IfW Extended input: vertical power-law shear exponent, -
          3     0.0000000E+00                                           F               0         IfW Extended input: propagation direction, rad
          4     2.0368944E-01                                           T               0         ED Blade 1 pitch command, rad
          5     2.0368944E-01                                           T               0         ED Blade 2 pitch command, rad
          6     2.0368944E-01                                           T               0         ED Blade 3 pitch command, rad
          7     0.0000000E+00                                           F               0         ED Yaw moment, Nm
          8     4.3065797E+04                                           F               0         ED Generator torque, Nm
          9     2.0368944E-01                                           F               0         ED Extended input: collective blade-pitch command, rad
         10     0.0000000E+00                                           T               0         AD User property on blade 1, node 1, -
         11     0.0000000E+00                                           T               0         AD User property on blade 1, node 2, -
         12     0.0000000E+00                                           T               0         AD User property on blade 1, node 3, -
         13     0.0000000E+00                                           T               0         AD User property on blade 1, node 4, -
         14     0.0000000E+00                                           T               0         AD User property on blade 1, node 5, -
         15     0.0000000E+00                                           T               0         AD User property on blade 1, node 6, -
         16     0.0000000E+00                                           T               0         AD User property on blade 1, node 7, -
         17     0.0000000E+00                                           T               0         AD User property on blade 1, node 8, -
         18     0.0000000E+00                                           T               0         AD User property on blade 1, node 9, -
         19     0.0000000E+00                                           T               0         AD User property on blade 1, node 10, -
         20     0.0000000E+00                                           T               0         AD User property on blade 1, node 11, -
         21     0.0000000E+00                                           T               0         AD User property on blade 1, node 12, -
         22     0.0000000E+00                                           T               0         AD User property on blade 1, node 13, -
         23     0.0000000E+00                                           T               0         AD User property on blade 1, node 14, -
         24     0.0000000E+00                                           T               0         AD User property on blade 1, node 15, -
         25     0.0000000E+00                                           T               0         AD User property on blade 1, node 16, -
         26     0.0000000E+00                                           T               0         AD User property on blade 1, node 17, -
         27     0.0000000E+00                                           T               0         AD User property on blade 1, node 18, -
         28     0.0000000E+00                                           T               0         AD User property on blade 1, node 19, -
         29     0.0000000E+00                                           T               0         AD User property on blade 2, node 1, -
         30     0.0000000E+00                                           T               0         AD User property on blade 2, node 2, -
         31     0.0000000E+00                                           T               0         AD User property on blade 2, node 3, -
         32     0.0000000E+00                                           T               0         AD User property on blade 2, node 4, -
         33     0.0000000E+00                                           T               0         AD User property on blade 2, node 5, -
         34     0.0000000E+00                                           T               0         AD User property on blade 2, node 6, -
         35     0.0000000E+00                                           T               0         AD User property on blade 2, node 7, -
         36     0.0000000E+00                                           T               0         AD User property on blade 2, node 8, -
         37     0.0000000E+00                                           T               0         AD User property on blade 2, node 9, -
         38     0.0000000E+00                                           T               0         AD User property on blade 2, node 10, -
         39     0.0000000E+00                                           T               0         AD User property on blade 2, node 11, -
         40     0.0000000E+00                                           T               0         AD User property on blade 2, node 12, -
         41     0.0000000E+00                                           T               0         AD User property on blade 2, node 13, -
         42     0.0000000E+00                                           T               0         AD User property on blade 2, node 14, -
         43     0.0000000E+00                                           T               0         AD User property on blade 2, node 15, -
         44     0.0000000E+00                                           T               0         AD User property on blade 2, node 16, -
         45     0.0000000E+00                                           T               0         AD User property on blade 2, node 17, -
         46     0.0000000E+00                                           T               0         AD User property on blade 2, node 18, -
         47     0.0000000E+00                                           T               0         AD User property on blade 2, node 19, -
         48     0.0000000E+00                                           T               0         AD User property on blade 3, node 1, -
         49     0.0000000E+00                                           T               0         AD User property on blade 3, node 2, -
         50     0.0000000E+00                                           T               0         AD User property on blade 3, node 3, -
         51     0.0000000E+00                                           T               0         AD User property on blade 3, node 4, -
         52     0.0000000E+00                                           T               0         AD User property on blade 3, node 5, -
         53     0.0000000E+00                                           T               0         AD User property on blade 3, node 6, -
         54     0.0000000E+00                                           T               0         AD User property on blade 3, node 7, -
         55     0.0000000E+00                                           T               0         AD User property on blade 3, node 8, -
         56     0.0000000E+00                                           T               0         AD User property on blade 3, node 9, -
         57     0.0000000E+00                                           T               0         AD User property on blade 3, node 10, -
         58     0.0000000E+00                                           T               0         AD User property on blade 3, node 11, -
         59     0.0000000E+00                                           T               0         AD User property on blade 3, node 12, -
         60     0.0000000E+00                                           T               0         AD User property on blade 3, node 13, -
         61     0.0000000E+00                                           T               0         AD User property on blade 3, node 14, -
         62     0.0000000E+00                                           T               0         AD User property on blade 3, node 15, -
         63     0.0000000E+00                                           T               0         AD User property on blade 3, node 16, -
         64     0.0000000E+00                                           T               0         AD User property on blade 3, node 17, -
         65     0.0000000E+00                                           T               0         AD User property on blade 3, node 18, -
         66     0.0000000E+00                                           T               0         AD User property on blade 3, node 19, -
         67     0.0000000E+00                                           F               0         HD Extended input: wave elevation at platform ref point, m

Order of outputs:
        Row   Operating Point                                    Rotating Frame? Derivative Order Description
   ---------- ---------------                                    --------------- ---------------- -----------
          1     1.6000000E+01                                           F               0         IfW Wind1VelX, (m/s)
          2     0.0000000E+00                                           F               0         IfW Wind1VelY, (m/s)
          3     0.0000000E+00                                           F               0         IfW Wind1VelZ, (m/s)
          4     4.9935884E+03                                           F               0         SrvD GenPwr, (kW)
          5     4.3065800E+01                                           F               0         SrvD GenTq, (kN-m)
          6     1.1670545E+01                                           T               0         ED BldPitch1, (deg)
          7     1.1670545E+01                                           T               0         ED BldPitch2, (deg)
          8     1.1670545E+01                                           T               0         ED BldPitch3, (deg)
          9     3.2134930E+02                                           F               0         ED Azimuth, (deg)
         10     1.2092270E+01                                           F               0         ED RotSpeed, (rpm)
         11     1.1729502E+03                                           F               0         ED GenSpeed, (rpm)
         12     0.0000000E+00                                           F               0         ED NacYaw, (deg)
         13     0.0000000E+00                                           T               0         ED OoPDefl1, (m)
         14     0.0000000E+00                                           T               0         ED IPDefl1, (m)
         15     0.0000000E+00                                           T               0         ED TwstDefl1, (deg)
         16     0.0000000E+00                                           T               0         ED OoPDefl2, (m)
         17     0.0000000E+00                                           T               0         ED IPDefl2, (m)
         18     0.0000000E+00                                           T               0         ED TwstDefl2, (deg)
         19     0.0000000E+00                                           T               0         ED OoPDefl3, (m)
         20     0.0000000E+00                                           T               0         ED IPDefl3, (m)
         21     0.0000000E+00                                           T               0         ED TwstDefl3, (deg)
         22     6.4965279E+01                                           T               0         ED TwrClrnc1, (m)
         23     6.3759724E+01                                           T               0         ED TwrClrnc2, (m)
         24     2.6269146E+01                                           T               0         ED TwrClrnc3, (m)
         25     1.4668934E-03                                           F               0         ED NcIMUTAxs, (m/s^2)
         26     0.0000000E+00                                           F               0         ED NcIMUTAys, (m/s^2)
         27     1.6370093E-04                                           F               0         ED NcIMUTAzs, (m/s^2)
         28     2.8260407E-01                                           F               0         ED TTDspFA, (m)
         29     0.0000000E+00                                           F               0         ED TTDspSS, (m)
         30     0.0000000E+00                                           F               0         ED TTDspTwst, (deg)
         31     1.4831734E+01                                           F               0         ED PtfmSurge, (m)
         32     0.0000000E+00                                           F               0         ED PtfmSway, (m)
         33     0.0000000E+00                                           F               0         ED PtfmHeave, (m)
         34     0.0000000E+00                                           F               0         ED PtfmRoll, (deg)
         35     3.0344169E+00                                           F               0         ED PtfmPitch, (deg)
         36     0.0000000E+00                                           F               0         ED PtfmYaw, (deg)
         37     1.4049200E-03                                           F               0         ED PtfmTAxt, (m/s^2)
         38     0.0000000E+00                                           F               0         ED PtfmTAyt, (m/s^2)
         39     7.4405361E-05                                           F               0         ED PtfmTAzt, (m/s^2)
         40     2.0542104E+02                                           T               0         ED RootFxc1, (kN)
         41     4.9011898E+01                                           T               0         ED RootFyc1, (kN)
         42     4.8785831E+02                                           T               0         ED RootFzc1, (kN)
         43    -3.9811841E+02                                           T               0         ED RootMxc1, (kN-m)
         44     6.8965171E+03                                           T               0         ED RootMyc1, (kN-m)
         45    -1.7149244E+01                                           T               0         ED RootMzc1, (kN-m)
         46     1.8098756E+02                                           T               0         ED RootFxc2, (kN)
         47    -2.0943803E+02                                           T               0         ED RootFyc2, (kN)
         48     5.9500684E+02                                           T               0         ED RootFzc2, (kN)
         49     4.7453276E+03                                           T               0         ED RootMxc2, (kN-m)
         50     5.8317598E+03                                           T               0         ED RootMyc2, (kN-m)
         51    -3.8904526E+01                                           T               0         ED RootMzc2, (kN-m)
         52     1.5610732E+02                                           T               0         ED RootFxc3, (kN)
         53     2.7968704E+01                                           T               0         ED RootFyc3, (kN)
         54     7.7887915E+02                                           T               0         ED RootFzc3, (kN)
         55    -3.6381415E+02                                           T               0         ED RootMxc3, (kN-m)
         56     4.5557588E+03                                           T               0         ED RootMyc3, (kN-m)
         57    -3.5688141E+01                                           T               0         ED RootMzc3, (kN-m)
         58    -4.7666626E+02                                           T               0         ED Spn1MLxb1, (kN-m)
         59     1.5642183E+03                                           T               0         ED Spn1MLyb1, (kN-m)
         60    -2.1693029E+01                                           T               0         ED Spn1MLzb1, (kN-m)
         61     3.0316971E+02                                           T               0         ED Spn1MLxb2, (kN-m)
         62     1.4993354E+03                                           T               0         ED Spn1MLyb2, (kN-m)
         63    -3.3679100E+01                                           T               0         ED Spn1MLzb2, (kN-m)
         64    -3.2868979E+02                                           T               0         ED Spn1MLxb3, (kN-m)
         65     8.0500043E+02                                           T               0         ED Spn1MLyb3, (kN-m)
         66    -3.4577126E+01                                           T               0         ED Spn1MLzb3, (kN-m)
         67     5.4237433E+02                                           F               0         ED RotThrust, (kN)
         68     6.4191150E+02                                           F               0         ED LSSGagFya, (kN)