
Predictions were generated on 07-Jun-2023 at 23:38:49 using OpenFAST, compiled as a DLL S-Function for Simulink as a 64-bit application using single precision at commit v3.4.0
 linked with  NWTC Subroutine Library; ElastoDyn; InflowWind; AeroDyn; ServoDyn; HydroDyn; MAP++ (<1.20.10>, <Jan-13-2023>)

Description from the FAST input file: FAST Certification Test #24: NREL 5.0 MW Baseline Wind Turbine with OC3 Hywind Configuration, for use in offshore analysis

Time	Wind1VelX	Wind1VelY	Wind1VelZ	BldPitch1	BldPitch2	BldPitch3	Azimuth	RotSpeed	GenSpeed	NacYaw	OoPDefl1	IPDefl1	TwstDefl1	OoPDefl2	IPDefl2	TwstDefl2	OoPDefl3	IPDefl3	TwstDefl3	TwrClrnc1	TwrClrnc2	TwrClrnc3	NcIMUTAxs	NcIMUTAys	NcIMUTAzs	TTDspFA	TTDspSS	TTDspTwst	PtfmSurge	PtfmSway	PtfmHeave	PtfmRoll	PtfmPitch	PtfmYaw	PtfmTAxt	PtfmTAyt	PtfmTAzt	RootFxc1	RootFyc1	RootFzc1	RootMxc1	RootMyc1	RootMzc1	RootFxc2	RootFyc2	RootFzc2	RootMxc2	RootMyc2	RootMzc2	RootFxc3	RootFyc3	RootFzc3	RootMxc3	RootMyc3	RootMzc3	Spn1MLxb1	Spn1MLyb1	Spn1MLzb1	Spn1MLxb2	Spn1MLyb2	Spn1MLzb2	Spn1MLxb3	Spn1MLyb3	Spn1MLzb3	RotThrust	LSSGagFya	LSSGagFza	RotTorq	LSSGagMya	LSSGagMza	YawBrFxp	YawBrFyp	YawBrFzp	YawBrMxp	YawBrMyp	YawBrMzp	TwrBsFxt	TwrBsFyt	TwrBsFzt	TwrBsMxt	TwrBsMyt	TwrBsMzt	TwHt1MLxt	TwHt1MLyt	TwHt1MLzt	RtArea	B1N3Clrnc	B2N3Clrnc	B3N3Clrnc	GenPwr	GenTq	Wave1Elev	HydroFxi	HydroFyi	HydroFzi	HydroMxi	HydroMyi	HydroMzi	B1Surge	B1Sway	B1Heave	B1Roll	B1Pitch	B1Yaw	B1TVxi	B1TVyi	B1TVzi	B1RVxi	B1RVyi	B1RVzi	B1TAxi	B1TAyi	B1TAzi	B1RAxi	B1RAyi	B1RAzi	B1WvsFxi	B1WvsFyi	B1WvsFzi	B1WvsMxi	B1WvsMyi	B1WvsMzi	B1HDSFxi	B1HDSFyi	B1HDSFzi	B1HDSMxi	B1HDSMyi	B1HDSMzi	B1RdtFxi	B1RdtFyi	B1RdtFzi	B1RdtMxi	B1RdtMyi	B1RdtMzi	T[1]	T_a[1]	T[2]	T_a[2]	T[3]	T_a[3]
(s)	(m/s)	(m/s)	(m/s)	(deg)	(deg)	(deg)	(deg)	(rpm)	(rpm)	(deg)	(m)	(m)	(deg)	(m)	(m)	(deg)	(m)	(m)	(deg)	(m)	(m)	(m)	(m/s^2)	(m/s^2)	(m/s^2)	(m)	(m)	(deg)	(m)	(m)	(m)	(deg)	(deg)	(deg)	(m/s^2)	(m/s^2)	(m/s^2)	(kN)	(kN)	(kN)	(kN-m)	(kN-m)	(kN-m)	(kN)	(kN)	(kN)	(kN-m)	(kN-m)	(kN-m)	(kN)	(kN)	(kN)	(kN-m)	(kN-m)	(kN-m)	(kN-m)	(kN-m)	(kN-m)	(kN-m)	(kN-m)	(kN-m)	(kN-m)	(kN-m)	(kN-m)	(kN)	(kN)	(kN)	(kN-m)	(kN-m)	(kN-m)	(kN)	(kN)	(kN)	(kN-m)	(kN-m)	(kN-m)	(kN)	(kN)	(kN)	(kN-m)	(kN-m)	(kN-m)	(kN-m)	(kN-m)	(kN-m)	(m^2)	(m)	(m)	(m)	(kW)	(kN-m)	(m)	(N)	(N)	(N)	(N-m)	(N-m)	(N-m)	(m)	(m)	(m)	(rad)	(rad)	(rad)	(m/s)	(m/s)	(m/s)	(rad/s)	(rad/s)	(rad/s)	(m/s^2)	(m/s^2)	(m/s^2)	(rad/s^2)	(rad/s^2)	(rad/s^2)	(N)	(N)	(N)	(N-m)	(N-m)	(N-m)	(N)	(N)	(N)	(N-m)	(N-m)	(N-m)	(N)	(N)	(N)	(N-m)	(N-m)	(N-m)	[N]	[N]	[N]	[N]	[N]	[N]
    0.0000	  1.4430311E+01	 -2.0428798E+00	  2.1411476E-01	  0.0000000E+00	  0.0000000E+00	  0.0000000E+00	  0.0000000E+00	  1.2100001E+01	  1.1737001E+03	  0.0000000E+00	  0.0000000E+00	  0.0000000E+00	  0.0000000E+00	  0.0000000E+00	  0.0000000E+00	  0.0000000E+00	  0.0000000E+00	  0.0000000E+00	  0.0000000E+00	  6.5378838E+01	  5.5506073E+01	  5.5506073E+01	 -6.8620533E-02	 -1.7702835E-02	 -1.0199875E-01	  0.0000000E+00	  0.0000000E+00	  0.0000000E+00	  0.0000000E+00	  0.0000000E+00	  0.0000000E+00	  0.0000000E+00	  0.0000000E+00	  0.0000000E+00	 -5.3221583E-03	 -1.1017325E-03	  1.2340332E-02	  3.8881546E+01	  4.7412133E+00	  4.5356689E+02	 -4.9116894E+01	  4.3942044E+02	  5.1675632E+01	  3.8827408E+01	 -9.3013741E+01	  7.0538281E+02	  8.9731659E+02	  4.2284702E+02	  8.3710747E+00	  3.5635643E+01	  9.2760414E+01	  7.0635852E+02	 -8.2586072E+02	  3.8914948E+02	  2.7027929E+01	  3.3656609E+01	 -4.3406693E+01	  3.5777424E+01	 -1.6491943E+02	 -7.5348282E+01	 -2.4630136E+00	  1.7296799E+02	 -2.5027264E+01	  1.5474927E+01	  8.4299583E+01	  7.4168139E+00	 -9.5800104E+02	  4.6312329E-04	 -1.8552782E+03	  4.9073692E+01	  1.4976823E+01	  2.5525639E+00	 -3.3341667E+03	  3.9154804E+01	 -2.9789038E+02	  7.2938576E-04	 -8.3503008E+00	 -1.9123272E+00	 -5.7861470E+03	  2.8850616E+01	 -2.2702576E+02	  7.2938576E-04	 -1.5857506E+01	  1.3770929E+02	  7.2938576E-04	  1.2445314E+04	  6.3444004E+01	  5.2997940E+01	  5.3172195E+01	  5.0000000E+03	  4.3093544E+01	  0.0000000E+00	  1.0878785E+04	  2.3289634E+03	  8.0705168E+07	  4.3935188E+04	 -1.8306200E+05	  8.3303758E-17	  0.0000000E+00	  0.0000000E+00	  0.0000000E+00	  0.0000000E+00	  0.0000000E+00	  0.0000000E+00	  0.0000000E+00	  0.0000000E+00	  0.0000000E+00	  0.0000000E+00	  0.0000000E+00	  0.0000000E+00	 -5.3221793E-03	 -1.1017664E-03	  1.2344360E-02	  1.2873590E-05	 -6.2956002E-05	 -3.2061170E-11	  0.0000000E+00	  0.0000000E+00	  0.0000000E+00	  0.0000000E+00	  0.0000000E+00	  0.0000000E+00	  0.0000000E+00	  0.0000000E+00	  8.0708144E+07	  0.0000000E+00	  0.0000000E+00	  0.0000000E+00	  1.0878785E+04	  2.3289634E+03	 -2.9781372E+03	  4.3935188E+04	 -1.8306200E+05	  8.3303758E-17	  9.1108950E+05	  7.3684519E+05	  9.1108994E+05	  7.3684569E+05	  9.1108994E+05	  7.3684569E+05
    0.0500	  1.4376707E+01	 -2.4487062E+00	  5.3899884E-01	  0.0000000E+00	  0.0000000E+00	  0.0000000E+00	  3.6324036E+00	  1.2094487E+01	  1.1393281E+03	  3.4604632E-04	  2.0758820E-01	 -2.7724355E-02	  0.0000000E+00	  1.1666223E-01	 -2.7136564E-02	  0.0000000E+00	  1.6268326E-01	  7.5599798E-03	  0.0000000E+00	  6.5358551E+01	  5.3467274E+01	  5.7276630E+01	  1.5661467E-02	 -1.5866815E-01	 -3.4248203E-02	  2.8070867E-06	  3.1000014E-05	  0.0000000E+00	  6.3367311E-06	 -2.3792720E-05	  1.5592712E-05	  1.4484182E-05	  3.3869303E-06	  4.1193576E-10	  6.4624222E-03	 -1.2961489E-02	  1.2275956E-02	  4.1171616E+01	 -2.6594498E+01	  4.6380212E+02	  4.1553497E+02	  7.2196375E+02	  4.2368027E+01	  4.9046230E+01	 -1.1407078E+02	  7.2555408E+02	  1.2502253E+03	  7.5913123E+02	 -3.8508782E+00	  4.4031548E+01	  7.6396515E+01	  6.9998602E+02	 -6.5692731E+02	  7.3929303E+02	  5.4283566E+00	 -6.1671352E+01	  8.4442825E+01	  2.6871510E+01	 -2.0296446E+02	 -1.1764386E+01	 -1.2223357E+01	  5.5598488E+01	  5.4685059E+01	 -4.1971531E+00	  9.9329979E+01	 -5.6959457E+01	 -9.6440411E+02	  1.1095433E+03	 -1.9540977E+03	  1.7965402E+02	  9.8524323E+00	  5.2341995E+01	 -3.3346069E+03	  1.0480330E+03	 -4.5213156E+02	  5.7098198E+01	  1.0110725E+01	 -2.3348028E+01	 -5.7865635E+03	  2.6863937E+02	  2.8500555E+02	  5.7101879E+01	 -3.2732004E+02	  2.3111589E+01	  5.7104542E+01	  1.2448638E+04	  6.3423328E+01	  5.0892258E+01	  5.4991909E+01	  4.8535737E+03	  4.3093544E+01	  0.0000000E+00	 -1.3238246E+04	  2.7836320E+04	  8.0705096E+07	  5.4121525E+05	  2.1922014E+05	 -7.4793203E-03	  6.3367311E-06	 -2.3792720E-05	  1.5592712E-05	  2.5279670E-07	  5.9113088E-08	  7.1896360E-12	  7.1690429E-04	 -1.4362056E-03	  6.2282215E-04	  1.5220342E-05	  7.2817961E-06	  5.2097171E-10	  6.4622648E-03	 -1.2961473E-02	  1.2276141E-02	  1.5083991E-04	  7.6530472E-05	  3.4769299E-04	  0.0000000E+00	  0.0000000E+00	  0.0000000E+00	  0.0000000E+00	  0.0000000E+00	  0.0000000E+00	  0.0000000E+00	  0.0000000E+00	  8.0708136E+07	  1.2637773E+03	  2.9551721E+02	  0.0000000E+00	 -1.3166457E+04	  2.7692508E+04	 -2.9616790E+03	  5.3994700E+05	  2.1892225E+05	 -9.0340219E-10	  9.1108956E+05	  7.3684531E+05	  9.1109025E+05	  7.3684600E+05	  9.1108994E+05	  7.3684569E+05
    0.1000	  1.4361491E+01	 -2.5780003E+00	  7.0917654E-01	  0.0000000E+00	  0.0000000E+00	  0.0000000E+00	  7.2449727E+00	  1.1975192E+01	  1.1197885E+03	 -9.0092246E-04	  7.7112114E-01	 -1.2994847E-01	  0.0000000E+00	  4.1654873E-01	 -1.2801354E-01	  0.0000000E+00	  5.6352532E-01	  1.5401086E-02	  0.0000000E+00	  6.5299774E+01	  5.1160378E+01	  5.8794453E+01	  4.6660382E+26	 -9.7968850E+25	  1.5435096E+28	  4.9183262E-05	 -7.4058102E-05	  0.0000000E+00	  7.3963121E-05	 -9.3298448E-05	  6.1465129E-05	  5.7871577E-05	  4.4482702E-05	  3.3206317E-05	  1.2930416E+29	 -6.0687425E+23	 -3.3278929E+25	 -4.1958238E+29	 -5.9477474E+28	 -4.3539048E+29	  6.9926589E+29	 -4.3588869E+30	  3.3045347E+27	  2.4426031E+29	 -2.2243702E+29	  2.6477079E+29	  1.9948331E+30	  2.4966741E+30	  8.5350465E+26	  1.6241896E+29	  2.8186279E+29	  1.7162215E+29	 -2.6942230E+30	  1.7658238E+30	 -4.1443969E+27	 -3.2804312E+29	  4.5316558E+29	  3.1706966E+27	 -2.8644332E+29	 -3.0602236E+29	  8.9158818E+26	  6.1219539E+29	 -1.3973094E+29	 -3.8819145E+27	 -3.9426396E+28	 -3.4586707E+29	 -2.5214084E+30	 -3.8525611E+23	 -1.2455473E+31	  1.4570908E+30	 -1.1982953E+29	 -1.1654042E+27	 -2.6307586E+29	  2.8696747E+27	 -2.5022748E+31	  1.0310645E+25	 -1.4722162E+31	 -8.7133048E+26	 -2.5546701E+29	  1.3722147E+28	 -1.3589993E+32	  5.7961297E+26	 -7.8976987E+27	  3.1743466E+31	 -2.3066955E+27	  1.2455388E+04	  6.3364002E+01	  4.8516640E+01	  5.6560799E+01	  4.7703340E+03	  4.3093544E+01	  0.0000000E+00	  4.5537182E+33	  1.0690678E+30	  6.9919923E+30	  2.0622669E+31	  7.3433833E+36	 -3.6387403E+13	  7.3963121E-05	 -9.3298448E-05	  6.1465129E-05	  1.0100496E-06	  7.7636963E-07	  5.7955958E-07	  2.3623344E-03	 -1.0823366E-04	  1.1955502E-03	  2.0481436E-06	  2.5497618E-05	  2.6079879E-05	  1.2930706E+29	 -5.0213709E+23	 -2.8981765E+25	  5.8514335E+21	  1.4532403E+27	  1.4004443E+19	  0.0000000E+00	  0.0000000E+00	  0.0000000E+00	  0.0000000E+00	  0.0000000E+00	  0.0000000E+00	  0.0000000E+00	  0.0000000E+00	  8.0708120E+07	  5.0494238E+03	  3.8812148E+03	  0.0000000E+00	  4.5537179E+33	  1.0690679E+30	  6.9919923E+30	  2.0622669E+31	  7.3433833E+36	 -3.6387403E+13	  9.1108950E+05	  7.3684519E+05	  9.1109138E+05	  7.3684706E+05	  9.1109025E+05	  7.3684594E+05
