
FAST Summary File

Predictions were generated on 27-Sep-2022 at 22:44:34 using OpenFAST, compiled as a 64-bit application using single precision at commit v2.6.0
  compiled with
    NWTC Subroutine Library
    ElastoDyn
    BeamDyn (unknown version, unknown date) [not called]
    InflowWind
    AeroDyn14 (unknown version, unknown date) [not called]
    AeroDyn
    ServoDyn
    HydroDyn
    SubDyn (unknown version, unknown date) [not called]
    ExtPtfm_MCKF (unknown version, unknown date) [not called]
    MAP++ (<1.20.10>, <May-20-2021>)
    FEAMooring (unknown version, unknown date) [not called]
    MoorDyn (unknown version, unknown date) [not called]
    OrcaFlexInterface (unknown version, unknown date) [not called]
    IceFloe (unknown version, unknown date) [not called]
    IceDyn (unknown version, unknown date) [not called]


Modeling a floating offshore turbine
Description from the FAST input file: 
  FAST Certification Test #24: NREL 5.0 MW Baseline Wind Turbine with OC3 Hywind Configuration, for use in offshore analysis

Interpolation order for input/output time histories: 1 (linear)
Number of correction iterations:  0
Number of rows in Jacobian matrix used for coupling ElastoDyn to HydroDyn:     12


   Requested Time Steps  
  -------------------------------------------------
  Component          Time Step (s)    Subcycles (-)
  -----------------  ---------------  -------------
  FAST (glue code)     5.0000000E-02
  InflowWind           5.0000000E-02         1
  ElastoDyn            5.0000000E-02         1
  AeroDyn              5.0000000E-02         1
  ServoDyn             5.0000000E-02         1
  HydroDyn             5.0000000E-02         1
  MAP++                5.0000000E-02         1
  FAST output files    5.0000000E-02         1


   Requested Channels in FAST Output File(s)  
  --------------------------------------------
  Number  Name                  Units                 Generated by
  ------  --------------------  --------------------  ------------
       1  Time                  (s)                   OpenFAST
       2  Wind1VelX             (m/s)                 InflowWind
       3  Wind1VelY             (m/s)                 InflowWind
       4  Wind1VelZ             (m/s)                 InflowWind
       5  BldPitch1             (deg)                 ElastoDyn
       6  BldPitch2             (deg)                 ElastoDyn
       7  BldPitch3             (deg)                 ElastoDyn
       8  Azimuth               (deg)                 ElastoDyn
       9  RotSpeed              (rpm)                 ElastoDyn
      10  GenSpeed              (rpm)                 ElastoDyn
      11  NacYaw                (deg)                 ElastoDyn
      12  OoPDefl1              (m)                   ElastoDyn
      13  IPDefl1               (m)                   ElastoDyn
      14  TwstDefl1             (deg)                 ElastoDyn
      15  OoPDefl2              (m)                   ElastoDyn
      16  IPDefl2               (m)                   ElastoDyn
      17  TwstDefl2             (deg)                 ElastoDyn
      18  OoPDefl3              (m)                   ElastoDyn
      19  IPDefl3               (m)                   ElastoDyn
      20  TwstDefl3             (deg)                 ElastoDyn
      21  NcIMUTAxs             (m/s^2)               ElastoDyn
      22  NcIMUTAys             (m/s^2)               ElastoDyn
      23  NcIMUTAzs             (m/s^2)               ElastoDyn
      24  NcIMUTVxs             (m/s)                 ElastoDyn
      25  NcIMUTVys             (m/s)                 ElastoDyn
      26  NcIMUTVzs             (m/s)                 ElastoDyn
      27  TTDspFA               (m)                   ElastoDyn
      28  TTDspSS               (m)                   ElastoDyn
      29  TTDspTwst             (deg)                 ElastoDyn
      30  YawBrTAxp             (m/s^2)               ElastoDyn
      31  YawBrTAyp             (m/s^2)               ElastoDyn
      32  YawBrTAzp             (m/s^2)               ElastoDyn
      33  PtfmSurge             (m)                   ElastoDyn
      34  PtfmSway              (m)                   ElastoDyn
      35  PtfmHeave             (m)                   ElastoDyn
      36  PtfmRoll              (deg)                 ElastoDyn
      37  PtfmPitch             (deg)                 ElastoDyn
      38  PtfmYaw               (deg)                 ElastoDyn
      39  PtfmTVxi              (m/s)                 ElastoDyn
      40  PtfmTVyi              (m/s)                 ElastoDyn
      41  PtfmTVzi              (m/s)                 ElastoDyn
      42  PtfmRVxi              (deg/s)               ElastoDyn
      43  PtfmRVyi              (deg/s)               ElastoDyn
      44  PtfmRVzi              (deg/s)               ElastoDyn
      45  PtfmTAxi              (m/s^2)               ElastoDyn
      46  PtfmTAyi              (m/s^2)               ElastoDyn
      47  PtfmTAzi              (m/s^2)               ElastoDyn
      48  PtfmRAxi              (deg/s^2)             ElastoDyn
      49  PtfmRAyi              (deg/s^2)             ElastoDyn
      50  PtfmRAzi              (deg/s^2)             ElastoDyn
      51  TwrBsFxt              (kN)                  ElastoDyn
      52  TwrBsFyt              (kN)                  ElastoDyn
      53  TwrBsFzt              (kN)                  ElastoDyn
      54  TwrBsMxt              (kN-m)                ElastoDyn
      55  TwrBsMyt              (kN-m)                ElastoDyn
      56  TwrBsMzt              (kN-m)                ElastoDyn
      57  RootFxc1              (kN)                  ElastoDyn
      58  RootFyc1              (kN)                  ElastoDyn
      59  RootFzc1              (kN)                  ElastoDyn
      60  RootMxc1              (kN-m)                ElastoDyn
      61  RootMyc1              (kN-m)                ElastoDyn
      62  RootMzc1              (kN-m)                ElastoDyn
      63  RootFxc2              (kN)                  ElastoDyn
      64  RootFyc2              (kN)                  ElastoDyn
      65  RootFzc2              (kN)                  ElastoDyn
      66  RootMxc2              (kN-m)                ElastoDyn
      67  RootMyc2              (kN-m)                ElastoDyn
      68  RootMzc2              (kN-m)                ElastoDyn
      69  RootFxc3              (kN)                  ElastoDyn
      70  RootFyc3              (kN)                  ElastoDyn
      71  RootFzc3              (kN)                  ElastoDyn
      72  RootMxc3              (kN-m)                ElastoDyn
      73  RootMyc3              (kN-m)                ElastoDyn
      74  RootMzc3              (kN-m)                ElastoDyn
      75  RotThrust             (kN)                  ElastoDyn
      76  LSSGagFya             (kN)                  ElastoDyn
      77  LSSGagFza             (kN)                  ElastoDyn
      78  RotTorq               (kN-m)                ElastoDyn
      79  LSSGagMya             (kN-m)                ElastoDyn
      80  LSSGagMza             (kN-m)                ElastoDyn
      81  YawBrFxp              (kN)                  ElastoDyn
      82  YawBrFyp              (kN)                  ElastoDyn
      83  YawBrFzp              (kN)                  ElastoDyn
      84  YawBrMxp              (kN-m)                ElastoDyn
      85  YawBrMyp              (kN-m)                ElastoDyn
      86  YawBrMzp              (kN-m)                ElastoDyn
      87  RtArea                (m^2)                 AeroDyn
      88  B1N3Clrnc             (m)                   AeroDyn
      89  B2N3Clrnc             (m)                   AeroDyn
      90  B3N3Clrnc             (m)                   AeroDyn
      91  RtTSR                 (-)                   AeroDyn
      92  RtAeroCp              (-)                   AeroDyn
      93  RtAeroCq              (-)                   AeroDyn
      94  RtAeroCt              (-)                   AeroDyn
      95  RtAeroPwr             (W)                   AeroDyn
      96  RtAeroFxh             (N)                   AeroDyn
      97  RtAeroMyh             (N-m)                 AeroDyn
      98  RtVAvgxh              (m/s)                 AeroDyn
      99  GenPwr                (kW)                  ServoDyn
     100  GenTq                 (kN-m)                ServoDyn
     101  Wave1Elev             (m)                   HydroDyn
     102  HydroFxi              (N)                   HydroDyn
     103  HydroFyi              (N)                   HydroDyn
     104  HydroFzi              (N)                   HydroDyn
     105  HydroMxi              (N-m)                 HydroDyn
     106  HydroMyi              (N-m)                 HydroDyn
     107  HydroMzi              (N-m)                 HydroDyn
     108  B1Surge               (m)                   HydroDyn
     109  B1Sway                (m)                   HydroDyn
     110  B1Heave               (m)                   HydroDyn
     111  B1Roll                (rad)                 HydroDyn
     112  B1Pitch               (rad)                 HydroDyn
     113  B1Yaw                 (rad)                 HydroDyn
     114  B1TVxi                (m/s)                 HydroDyn
     115  B1TVyi                (m/s)                 HydroDyn
     116  B1TVzi                (m/s)                 HydroDyn
     117  B1RVxi                (rad/s)               HydroDyn
     118  B1RVyi                (rad/s)               HydroDyn
     119  B1RVzi                (rad/s)               HydroDyn
     120  B1TAxi                (m/s^2)               HydroDyn
     121  B1TAyi                (m/s^2)               HydroDyn
     122  B1TAzi                (m/s^2)               HydroDyn
     123  B1RAxi                (rad/s^2)             HydroDyn
     124  B1RAyi                (rad/s^2)             HydroDyn
     125  B1RAzi                (rad/s^2)             HydroDyn
     126  B1WvsFxi              (N)                   HydroDyn
     127  B1WvsFyi              (N)                   HydroDyn
     128  B1WvsFzi              (N)                   HydroDyn
     129  B1WvsMxi              (N-m)                 HydroDyn
     130  B1WvsMyi              (N-m)                 HydroDyn
     131  B1WvsMzi              (N-m)                 HydroDyn
     132  B1HDSFxi              (N)                   HydroDyn
     133  B1HDSFyi              (N)                   HydroDyn
     134  B1HDSFzi              (N)                   HydroDyn
     135  B1HDSMxi              (N-m)                 HydroDyn
     136  B1HDSMyi              (N-m)                 HydroDyn
     137  B1HDSMzi              (N-m)                 HydroDyn
     138  B1RdtFxi              (N)                   HydroDyn
     139  B1RdtFyi              (N)                   HydroDyn
     140  B1RdtFzi              (N)                   HydroDyn
     141  B1RdtMxi              (N-m)                 HydroDyn
     142  B1RdtMyi              (N-m)                 HydroDyn
     143  B1RdtMzi              (N-m)                 HydroDyn
     144  T[1]                  [N]                   MAP++
     145  T_a[1]                [N]                   MAP++
     146  T[2]                  [N]                   MAP++
     147  T_a[2]                [N]                   MAP++
     148  T[3]                  [N]                   MAP++
     149  T_a[3]                [N]                   MAP++
